60
Lattice="20.0 0.0 0.0 0.0 20.0 0.0 0.0 0.0 20.0" Properties=species:S:1:pos:R:3:forces:R:3 entry_id=27 rank=0 parent_id=26 energy=-502.25131952735273 pbc="F F F"
C        7.12605760       9.55895799      11.25428427       0.00052573      -0.02038627      -0.00622804
C       12.90828106       8.80525291       8.55115182       0.03366512       0.00678993      -0.00413342
C       12.63009856      10.70882991      12.10148445       0.00073985       0.02166740      -0.01436306
C        9.48946402       6.64274924       9.69004140      -0.00885932      -0.00177388       0.00183279
C        6.78922595       8.32315851      10.57520220      -0.00586746       0.01060882       0.00722961
C       10.15851780      12.94958680       9.39885640       0.02004824      -0.00209443      -0.00120528
C        8.39286736      11.42121271      13.26825006      -0.03041961       0.01884561       0.03323486
C       10.00493432       7.88653808      11.83389783      -0.02630158      -0.02665459      -0.01478793
C        8.79871224      10.71119292       6.28694703       0.00993765       0.00975631       0.00787136
C        7.29072851       6.38960447       7.87521586      -0.00151693       0.00810394       0.00230326
C       11.71523196       7.62020185      10.13230854      -0.00000006      -0.01760761      -0.01262392
C       12.78943483      13.52980136      11.66053910      -0.01257452       0.02464100       0.00911594
C        9.58264543       7.09069103       8.29510874       0.00542371      -0.00684429      -0.00104274
C       10.75693333      13.71820184      10.49118208       0.00235627      -0.01969359      -0.00762311
C       12.57728884      12.36991807       8.69910128       0.00177704      -0.02656650       0.00099537
C        6.30203827       6.94008290       8.71475032       0.00724179      -0.01447855       0.01227978
C       13.21509676      11.09654497       8.63930857       0.00266367      -0.00543391       0.01821547
C       10.12985656       9.88060328      13.32952175      -0.00700453       0.00148119      -0.00249696
C       10.80252576       8.96198716      12.44918848      -0.00115228      -0.00598700      -0.00704329
C       13.43676100       9.13593878       9.83230097       0.02847781       0.00255578      -0.01614821
C        7.70009862       7.29301764      11.07058089       0.00982602      -0.00316901       0.00115414
C        9.07880311       9.39047189       6.71827268      -0.00600170      -0.00238031       0.01959276
C        9.58593478      12.11611619      13.65294734       0.00790606       0.00447534      -0.04476427
C        6.41625494       8.29412625       9.19861765      -0.01138739       0.01104428       0.01163830
C        9.39590331      13.07866098      12.59724859       0.02428339      -0.00345223       0.00002344
C        7.18090960       5.92574618       9.20586300      -0.00804948       0.01827461      -0.00957587
C        7.34876402      10.55408599       8.98359164      -0.03697647      -0.00913771      -0.00118880
C        8.58454817       7.93629112      12.00787164      -0.02173388      -0.00825007       0.00333115
C        8.03222116       8.64639432       7.36020937       0.00368256       0.00400120       0.01353782
C       13.57476402      11.22618223      11.12264042      -0.01767596       0.00497090      -0.01023894
C       11.38457116      10.24842387       7.22045120       0.01371473       0.00414493      -0.00124988
C       11.85799443       7.86093856       8.71986125       0.01075818       0.01259277      -0.01660736
C       10.69263484      11.18493443      13.60494166       0.01036249       0.03740894      -0.00377037
C       12.18319861      14.00474206      10.44535882      -0.00069498       0.02051259       0.00656844
C       12.08608006       9.35127019      11.90130554       0.00070158       0.02485954      -0.01092043
C       10.43728870       9.13174599       7.11684062      -0.00735258      -0.02198172       0.01505731
C        7.99684632       9.18795115      12.35533947      -0.00673823      -0.00745979      -0.01879879
C        8.69834831      10.03325934      13.21087658      -0.02570452       0.00627092      -0.01080077
C       12.59981097       8.53982578      10.82861736       0.03179863      -0.00209877      -0.00086215
C       11.85212911      11.64942148      12.91974872       0.02474299       0.00564728       0.00581602
C        8.17966746       6.30029869      10.17655090       0.00617712       0.00025155       0.00730249
C        8.37168471       7.25612347       7.54095032       0.01457739       0.02037018      -0.01332853
C       13.67387381      12.64884477      10.93995942       0.00691708       0.01180703      -0.00872740
C        8.78272414      12.35672291       9.53128804       0.01395460      -0.01384417       0.02602671
C       10.44944296       7.22676119      10.63348545      -0.02669476      -0.01456201      -0.02205983
C        8.36200970      11.79240750       7.10639258      -0.02367851       0.02460619      -0.00320445
C       10.87113507      11.60179144       7.25077916      -0.00273020       0.00087516       0.03302907
C       12.63786544      10.02332696       7.86676729       0.02066988       0.00581254      -0.00838303
C       11.77313382      13.04110617      12.51755931      -0.01039062      -0.02110778      -0.00441433
C        8.07854292      11.90679193      10.74853326      -0.00196206      -0.01627345      -0.00563413
C       13.11915193      13.21569755       9.68728335       0.00833857      -0.01210138      -0.01275424
C       13.72216991      10.52785958       9.88428336      -0.00962239       0.00715709       0.01053287
C       11.16976436      12.45578993       8.37997157       0.02043904      -0.00702114       0.02921338
C        7.33087485      10.70742480      10.42036870      -0.00408693      -0.02223984      -0.00851276
C       10.68148146       7.95229253       7.92507011      -0.00699959      -0.01630645       0.00143235
C        8.04549763      11.70130120       8.47817383      -0.00521303       0.00508970       0.02646127
C        9.65761475      11.77957904       6.56101764       0.00099378      -0.00985062      -0.00563975
C       10.53731142      13.51910723      11.92275457       0.01420863      -0.00752746       0.00096271
C        7.11402177       9.24758559       8.35382159      -0.00347624      -0.01349574       0.00944063
C        8.25425904      12.31442365      12.09442580      -0.02604379       0.02515759      -0.00506723
60
Lattice="20.0 0.0 0.0 0.0 20.0 0.0 0.0 0.0 20.0" Properties=species:S:1:pos:R:3:forces:R:3 entry_id=27 rank=0 parent_id=26 energy=-502.25256355700225 pbc="F F F"
C        7.10888289       9.54452415      11.25548909       0.00335398       0.01171006       0.01343340
C       12.90045541       8.77983976       8.53645355       0.00908830       0.00009680      -0.00184102
C       12.62523047      10.67324275      12.09572062       0.01399593       0.00362187       0.01056459
C        9.46220313       6.63380440       9.66668683       0.00765354      -0.00804939       0.01292819
C        6.76517450       8.31335915      10.57224570       0.01117691       0.01084424      -0.01100374
C       10.17297569      12.92493116       9.41470863      -0.02931523       0.01072808      -0.01024602
C        8.38852051      11.40137930      13.27705902       0.00790274      -0.00391302      -0.01426579
C       10.42424571       7.21295132      10.60886892       0.00492225      -0.01485597       0.01563981
C        8.79491330      10.72178508       6.29553473       0.01049292      -0.01245404      -0.00705450
C        7.26255293       6.40227196       7.85758840      -0.00005738      -0.01138422      -0.00994910
C       11.69409923       7.59923199      10.11024864      -0.00019447      -0.00837409       0.00789888
C       12.80284984      13.49396277      11.67262906       0.00096059      -0.01019643       0.00904490
C        9.56098262       7.08274181       8.27340813       0.00412687       0.00738703      -0.00662787
C       10.77213701      13.69096736      10.50557746       0.00718272       0.00321303       0.00005523
C       12.58792122      12.34463964       8.70480986      -0.00885750       0.00389582       0.00368255
C        6.27445216       6.94537228       8.70170070       0.00263214       0.00542378      -0.00331347
C       13.21925913      11.06900894       8.63681997       0.00565461       0.00418143       0.00646630
C       10.11999716       9.85227117      13.32172604      -0.00279093      -0.00672584      -0.01841723
C       10.78716601       8.93557890      12.43456577      -0.01516743      -0.01529789      -0.01889348
C       13.42837674       9.10334767       9.81991397       0.00600014      -0.00957119       0.00334448
C        7.67618670       7.27808032      11.05826908       0.01162861       0.01399057      -0.00257926
C        9.06587245       9.39702819       6.71992339       0.00932939      -0.00525874       0.01224978
C        9.58956179      12.08737280      13.65545421      -0.00383766      -0.00055086       0.00989351
C        6.39198052       8.29569064       9.19553158      -0.00095098       0.00577915      -0.00909013
C        9.40463050      13.05656431      12.60658066       0.01762561      -0.02255070       0.00502823
C        7.15274046       5.92572939       9.18279257      -0.00628168       0.00578880       0.00897567
C        7.33587591      10.55247798       8.99136698       0.00348123      -0.01211623      -0.00035191
C        8.56432713       7.91539366      11.99646984       0.00114595       0.00772879       0.00793383
C        8.01482075       8.65630113       7.35977128       0.01725470      -0.00116215      -0.00527186
C       13.57408065      11.18816856      11.12019778      -0.00292529       0.00522090       0.00748423
C       12.63640188      10.00251703       7.85856901      -0.00266433       0.00452354      -0.01475328
C       11.84391765       7.84000898       8.69871452      -0.00972323       0.00989329       0.00731123
C       10.69126493      11.15191527      13.60437788       0.00849313      -0.00031397      -0.00818960
C       12.19885693      13.97469989      10.45912285       0.00791410       0.00337777      -0.00164115
C       12.07228072       9.32143014      11.88718893      -0.00196568      -0.00237324      -0.00802971
C       10.42604095       9.12487866       7.10769793      -0.01687374       0.00083760       0.02461655
C        7.98088234       9.16751501      12.35308714       0.00625475       0.01033700      -0.00678281
C        8.68811537      10.01104378      13.20769763      -0.00833380      -0.00319726       0.00005810
C       12.58320748       8.51128625      10.81161414       0.01378100      -0.01013952       0.00127133
C       11.85607590      11.61240763      12.92472142       0.00666792       0.01216694      -0.02702806
C        8.15312087       6.29127156      10.15533932       0.00188859       0.01493291       0.00517382
C        8.34782618       7.26394752       7.52672111       0.00261920      -0.00359246      -0.01788450
C       13.68310864      12.61136064      10.94585524      -0.00835482       0.00185633       0.02262239
C        8.79568269      12.33257386       9.54801210      -0.01088868       0.00489152       0.02045911
C        9.98385896       7.86575194      11.81448693      -0.00129716      -0.00289146       0.00345718
C        8.36442304      11.79875708       7.12206072      -0.01281447       0.01982507      -0.00903530
C       10.87375591      11.59114290       7.26022369      -0.00905483      -0.00819915      -0.00097386
C       11.38134100      10.23618436       7.21771719      -0.01600330      -0.00654777      -0.01085861
C       11.78456382      13.00628284      12.52971719      -0.00178585      -0.00474638      -0.03183932
C        8.08354492      11.88652215      10.76099037      -0.01145233       0.01832626       0.00939966
C       13.13163550      13.18445283       9.69666351       0.00679396       0.01373495      -0.00266943
C       13.72143607      10.49348732       9.87930586      -0.01101991      -0.00219401       0.01798395
C       11.18032208      12.43633503       8.39245132       0.00424996      -0.01546802       0.00463531
C        7.32095694      10.69640928      10.42823996       0.00808140       0.00366461       0.00704560
C       10.66659132       7.93733766       7.90457047      -0.00152894       0.00793262       0.00592656
C        8.04959459      11.69344264       8.49306050      -0.01397489       0.00978057      -0.00096130
C        9.66011850      11.78376248       6.57385989      -0.01444206      -0.02273707       0.00897587
C       10.55057332      13.49139564      11.93589758       0.00609392      -0.00279685       0.00205522
C        7.09592153       9.25081373       8.35698252       0.00236537       0.00106531      -0.02437039
C        8.25605006      12.29978421      12.10528381      -0.00825584      -0.00909874       0.00830722
60
Lattice="20.0 0.0 0.0 0.0 20.0 0.0 0.0 0.0 20.0" Properties=species:S:1:pos:R:3:forces:R:3 entry_id=27 rank=0 parent_id=26 energy=-502.42468213468896 pbc="F F F"
C        7.10234127       9.60495280      11.17750712       0.00811367      -0.00417056      -0.00137246
C       12.87099399       8.71611487       8.58786447      -0.00509297       0.00651364      -0.00060311
C       12.61995203      10.62418928      12.13654519       0.00227776      -0.00431373       0.00231154
C        9.41320805       6.59776695       9.70128092      -0.00267890      -0.00132567       0.00257773
C        6.75028726       8.36418482      10.51598664      -0.00644542       0.00168803      -0.00306338
C       10.29727350      12.95313360       9.51301038      -0.00639604      -0.00318966      -0.00775916
C        8.37471193      11.45540215      13.23685882      -0.00253641      -0.00328829      -0.00672290
C       10.36622494       7.19434947      10.64125834      -0.00051364      -0.00556991      -0.00100967
C        9.12035211       9.23653611       6.64484943       0.01534520       0.02575663      -0.01313793
C        7.23730117       6.32951512       7.86201810      -0.01284911       0.00194662       0.00126564
C       11.65308945       7.55104997      10.16004281       0.00211310       0.00465163       0.00233187
C       12.89327543      13.43771837      11.73548109       0.00238910      -0.00079554       0.00079674
C        9.55243477       6.97622700       8.28921330      -0.00458005      -0.00106876       0.00416239
C       10.88704648      13.74780602      10.57414975       0.00057899       0.00068296      -0.00773990
C       12.64282887      12.29324646       8.74633625       0.00330221      -0.00697156      -0.00008301
C        6.26605641       6.96186675       8.66886203      -0.00162028       0.00156169      -0.00923575
C       13.22642036      10.99600745       8.68981325      -0.00043686       0.00369258      -0.00066101
C       10.06763207       9.86935797      13.30984028       0.00398121      -0.00042550       0.00372577
C       10.73029702       8.93883224      12.43604057      -0.00084587      -0.00718906       0.00685622
C       13.41331110       9.02643320       9.86986801      -0.00592049       0.00464501       0.00086496
C        7.61786112       7.31941708      11.04888290       0.00146221       0.01419257      -0.00204090
C        8.61181634      11.75432478       5.76256816       0.00403274       0.00703080       0.00360816
C        9.58382978      12.11107962      13.64244119      -0.00523269      -0.00880053      -0.00344590
C        6.43259003       8.32258703       9.12643085       0.00080634       0.00160244      -0.00767007
C        9.44609799      13.08598082      12.59484625      -0.00011300      -0.00484028      -0.00433665
C        7.09183365       5.93002960       9.20901507       0.00715151      -0.02084382      -0.00262781
C        7.60075059      10.48909221       8.90300036       0.00834677      -0.00540697       0.00080065
C        8.49698353       7.95572260      11.99220412       0.00195984       0.00574164       0.00375419
C        8.06409272       8.52414502       7.28985453      -0.01830183      -0.03553006       0.00982541
C       13.59483609      11.10966406      11.17215480      -0.00586185       0.00405811      -0.00136434
C       12.60940316       9.94614054       7.91710988       0.00829605       0.00518803      -0.01094745
C       10.66905544       7.82244821       7.92555708      -0.00269026       0.00319124       0.01152943
C       10.66636621      11.15186903      13.60722839       0.00344957      -0.00201584       0.00867503
C       12.32065250      13.95344259      10.52281275      -0.00892890      -0.00234177       0.00008685
C       12.03667968       9.28790897      11.91602517      -0.00409332      -0.00358340       0.00280353
C       10.44571493       9.00173585       7.12803356      -0.00185608       0.00094173       0.01747079
C        7.93010801       9.22619151      12.31223754       0.00923632       0.00506997       0.00059995
C        8.64049960      10.05906775      13.17412485       0.00722849       0.00008057      -0.00124307
C       12.55451792       8.45332725      10.86174674      -0.01031618      -0.00190341      -0.00237282
C       11.86069383      11.58242231      12.95678946       0.00461825      -0.00314470       0.00428633
C        8.08993276       6.29910392      10.18068235      -0.00201091      -0.00059267       0.01154881
C        8.35950592       7.13193307       7.50508559      -0.00694613      -0.00555020       0.01050728
C       13.73699926      12.52828791      10.99630564       0.01012705       0.00528732       0.00294212
C        8.99119306      12.28171634       9.60106938       0.00004171      -0.00492018      -0.00217033
C        9.91692403       7.87642332      11.82541339      -0.00016046      -0.00658848       0.00187485
C        8.55175898      11.49056205       8.48890674       0.00722672       0.00892686      -0.01395904
C       10.69443406      11.43517196       7.56241605       0.00298870       0.00523044       0.00162467
C       11.32140141      10.16785316       7.32123217       0.00922213       0.00068273      -0.00376184
C       11.84447894      12.98266402      12.58232515       0.01221627       0.00241762       0.00277849
C        8.28030547      12.35210785      12.06448603       0.00122624      -0.00089133       0.00324178
C       13.20938660      13.12325986       9.74413352      -0.01209636      -0.00011593       0.00304712
C       13.72838595      10.41149487       9.92979412      -0.00650224      -0.00144647       0.00091031
C       11.22355517      12.37789844       8.50890261       0.00192198       0.00454786      -0.00398608
C        7.39102456      10.72754577      10.32915095      -0.00285551      -0.00672888      -0.00080593
C       11.82479287       7.76531617       8.75083363      -0.00485446       0.01400436      -0.00172815
C        8.83622177      10.53189601       6.18818945      -0.00184152       0.00391553       0.00391119
C        9.27380773      11.55176784       7.23343406      -0.00094355       0.00889465      -0.00502807
C       10.63102531      13.52356786      11.98802448       0.00935748       0.00547493      -0.00148033
C        7.22858593       9.20417995       8.29670692       0.00233276       0.00332297      -0.00216828
C        8.13007116      11.92119877      10.71660309      -0.00582905      -0.00738802      -0.00819446
60
Lattice="20.0 0.0 0.0 0.0 20.0 0.0 0.0 0.0 20.0" Properties=species:S:1:pos:R:3:forces:R:3 entry_id=27 rank=0 parent_id=26 energy=-504.2578867851571 pbc="F F F"
C        7.27665006      10.56413669      10.64697544       0.00577911      -0.00550562       0.00745902
C       12.86626120       8.72483957       8.58520471       0.01919033      -0.00835424      -0.00108932
C       12.55804679      10.63289788      12.10340897      -0.00673546      -0.00525852      -0.00978574
C        9.43061115       6.55983442       9.66333737       0.00208615       0.01194904       0.00059659
C        6.71818584       8.15265581      10.60570950      -0.00903839       0.02189556      -0.00438561
C        9.15324705      12.52841270       9.70584577       0.00580196       0.00364305       0.01871448
C        8.20976076      11.29754236      12.83500976      -0.00091335       0.00855502       0.00352021
C       10.37029209       7.14970805      10.62488891       0.00415714      -0.00316394       0.01263466
C        9.08643635       9.34146069       6.76210727      -0.00540211      -0.02838664      -0.02406981
C        7.24595202       6.35702817       7.79929303       0.02927885       0.01737953       0.01480180
C       11.64544050       7.54178823      10.14155552      -0.00841801       0.00843803       0.00705438
C       11.86028309      13.03406377      12.50590351      -0.00180615       0.01792133       0.00586276
C        9.55358786       7.00472658       8.26997557       0.00773862      -0.01184325      -0.00925751
C       11.07040211      13.93260918      10.47267143      -0.00661708       0.00180619       0.01242045
C       13.27292325      10.99483487       8.69291674      -0.00384492       0.00987617      -0.00786430
C        6.29234161       6.94901544       8.65546236      -0.01211487       0.00519672      -0.00145098
C       12.75817954      12.32153493       8.72543016      -0.00221381       0.00609042      -0.01108134
C        9.98423059       9.87050732      13.21592123      -0.00329297       0.00074341      -0.00818080
C       10.68484801       8.90494334      12.41536377       0.01533208       0.00260990      -0.00373541
C       13.40414688       9.01828701       9.87030473      -0.00042330      -0.00005491       0.01128800
C        7.62801539       7.11563588      11.08197864      -0.01262277       0.01398355      -0.01671522
C        8.49366117      11.90690427       6.07746095      -0.04320686      -0.00757846       0.00922284
C        9.35222424      12.10282359      13.12037328       0.00544064       0.00812460       0.00309951
C        6.45281037       8.26992105       9.21597594      -0.00346152       0.01396750      -0.01176208
C        9.44886922      13.09074601      12.10460983       0.00915677      -0.00233818      -0.00581744
C        7.11815072       5.89051928       9.13104438       0.00264193       0.00600170      -0.00461725
C        7.26759166       9.24079672       8.50405596       0.00881392       0.00197675       0.00174661
C        8.49353642       7.75060328      12.05235830       0.00312622      -0.00101789       0.01199001
C        8.05834969       8.61913471       7.43018845      -0.00894090       0.00740591       0.01554873
C       13.73933972      10.39640944       9.93781900      -0.00296435      -0.01274763       0.03767861
C       12.62253742       9.96356757       7.92206281       0.01180831      -0.00361092      -0.01113175
C       10.66255223       7.85906903       7.91833053      -0.01077022      -0.01957487      -0.01098593
C       10.47751955      11.22829506      13.32697595      -0.00141156       0.00051798       0.01070805
C       12.50980938      14.02338803      10.49220017      -0.00736292      -0.00656183       0.00454194
C       11.98513245       9.28667182      11.88987847       0.02083589      -0.01449984      -0.00366649
C       10.42826281       9.06506397       7.16762408       0.00071562      -0.02089106      -0.02193725
C        7.85007873       8.96774666      12.43209857       0.01592781       0.01373417       0.01525639
C        8.55372353       9.95233429      13.12088143      -0.00904035      -0.01919161      -0.01831167
C       12.53342355       8.44801791      10.85461219      -0.01418223       0.01591137      -0.01107174
C       11.76228527      11.62632888      12.83428642       0.00564844      -0.00236845      -0.00537628
C        8.12136797       6.19223316      10.12545755      -0.00082950       0.00760152      -0.01249481
C        8.35166048       7.20872303       7.51552636       0.00729360       0.01022981      -0.00925555
C       13.79532216      12.49901033      11.01111157      -0.01306841      -0.00622321       0.00579966
C       10.45780246      13.14067368       9.42911946      -0.00169325      -0.00107759       0.01338010
C        9.91119903       7.78870192      11.83266848       0.01278172       0.01965409       0.00565752
C        8.60577471      11.52899977       8.81917830       0.00546719       0.00163374       0.00892461
C       10.71786455      11.47302998       7.65623850       0.00166283      -0.00326449       0.00114332
C       11.32086642      10.21016362       7.36449805       0.00638514      -0.00395932      -0.01074656
C       12.97970809      13.45223480      11.72397693      -0.01170737      -0.00798727       0.01398220
C        8.60717144      12.66454731      11.02107482       0.00326652      -0.01771200       0.00121396
C       13.34941236      13.12398643       9.74001947      -0.00753804       0.00289412       0.00269727
C       13.58797526      11.08982148      11.18009960      -0.01303280      -0.00805934      -0.00933869
C       11.34277308      12.45668491       8.48440979      -0.01168357       0.00483949       0.00366813
C        6.99275512       9.34183430      11.34633043      -0.00432865       0.00803540       0.01578080
C       11.81831142       7.77737644       8.73698855       0.00617478      -0.00342145      -0.01049267
C        8.77155689      10.66327627       6.41528048       0.01702629      -0.00658063       0.01215348
C        9.25828463      11.57621761       7.49853666      -0.00266980      -0.01592311       0.00482951
C       10.71322378      13.62831372      11.84042811       0.00082633       0.00114850      -0.01376062
C        7.64907497      10.50838698       9.22821854       0.00716712      -0.01653501      -0.01067764
C        7.75128971      11.61305944      11.50584917      -0.00019583       0.00992672      -0.01431519
60
Lattice="20.0 0.0 0.0 0.0 20.0 0.0 0.0 0.0 20.0" Properties=species:S:1:pos:R:3:forces:R:3 entry_id=27 rank=0 parent_id=26 energy=-504.2596750525947 pbc="F F F"
C        7.27874374      10.53705050      10.69353134       0.00227926      -0.00556537       0.00148812
C       12.86017244       8.75099912       8.53942353       0.00181201       0.01725018      -0.00358392
C       12.58041311      10.66002352      12.06416522      -0.00110622       0.00162517      -0.00024840
C        9.45941722       6.55740654       9.67243924       0.00436792      -0.00363560      -0.00348971
C        6.74508543       8.12292025      10.65767859      -0.01136134      -0.00518178       0.00528921
C        8.59509866      12.64855700      11.04582173      -0.00218224       0.00042770       0.00610878
C        8.23939460      11.27983190      12.86567304      -0.01171885       0.00146541       0.01665799
C       10.40740641       7.15702334      10.61900287      -0.00368357      -0.00218680      -0.00162322
C        9.04591413       9.32662598       6.77241736       0.00210321       0.00274961       0.00068535
C        7.25114698       6.33376347       7.84655655      -0.00849484       0.00065122      -0.00437695
C       11.66975659       7.56149078      10.11398016       0.00001766       0.00355148       0.00691578
C       11.86454937      13.05449737      12.48085906       0.00484933       0.00348229       0.00038801
C        9.55971032       6.99794045       8.27558698       0.00616444      -0.00104112      -0.00144819
C       11.03461922      13.94155841      10.45893231      -0.00196262       0.01069848      -0.00320636
C       13.24267559      11.02715479       8.64153360      -0.00470171       0.00091638       0.00540722
C        6.30100422       6.91423655       8.71351781      -0.00606279      -0.00156460      -0.00409751
C       12.71295511      12.34828816       8.68363307       0.00550542       0.00027317      -0.00769135
C       10.03456863       9.87159520      13.21725080      -0.00449329      -0.00247279      -0.00013956
C       10.73273808       8.91420024      12.40496965      -0.00363042      -0.01028025       0.00797276
C       13.41062381       9.05297544       9.81756576       0.00422932      -0.00105717       0.00098523
C        7.67325803       7.09545877      11.11825127      -0.00019380       0.00435961       0.00135983
C        8.39371050      11.88500338       6.11333664      -0.01302906      -0.01362377       0.00606371
C        9.37740895      12.09702706      13.13333295       0.00460327       0.00451271       0.01171746
C        6.45750523       8.23685641       9.27170050       0.00471552       0.00096480      -0.00095682
C        9.44795856      13.08511693      12.11579944       0.00379714      -0.00061198       0.00688405
C        7.14532885       5.86311968       9.17715869       0.00098843       0.00598790      -0.00163272
C        7.25519782       9.21322227       8.54900929       0.00041576       0.00735920      -0.00044754
C        7.89727404       8.94679025      12.46795306       0.00052290      -0.00028843       0.00513437
C        8.03596640       8.59999079       7.46287630       0.00283300      -0.00063856      -0.00761587
C       13.73127849      10.43448354       9.88086145       0.00334774      -0.00435694       0.00771274
C       12.59427287       9.98720578       7.87910461      -0.00813494       0.01146290      -0.00625344
C       10.65531684       7.86026390       7.90265796       0.01240297      -0.00434191       0.00389280
C       10.51467237      11.23424905      13.32295812       0.00655712      -0.00384319      -0.00456371
C       12.47235918      14.04792606      10.45643150       0.00659179       0.00021784      -0.00240433
C       12.01984927       9.30833575      11.85857968      -0.00284977      -0.00204410       0.00546196