115
Lattice="13.75323 0.0 0.0 0.0 13.75323 0.0 0.0 0.0 23.89" Properties=species:S:1:pos:R:3:move_mask:L:1:forces:R:3 energy=-612.766192331191 stress="0.01040572244412847 -0.00026637981043515374 -2.4941188208224414e-05 -0.00026637981043515374 0.008364428706616654 0.00011580513516739717 -2.4941188208224414e-05 0.00011580513516739717 5.88890990831847e-05" pbc="T T T"
Pd       0.00000000       0.00000000      10.00000000  F       0.02425565       0.04298683       0.04423874
Pd       2.75064538       0.00000000      10.00000000  F      -0.08001152       0.06482038       0.07377976
Pd       5.50129076       0.00000000      10.00000000  F      -0.15033004       0.16019579      -0.06009655
Pd       8.25193614       0.00000000      10.00000000  F       0.06314822       0.13740443       0.07501169
Pd      11.00258152       0.00000000      10.00000000  F      -0.07634432       0.04632494      -0.05557629
Pd       0.00000000       2.75064538      10.00000000  F       0.04026142       0.04392321       0.09181867
Pd       2.75064538       2.75064538      10.00000000  F      -0.02237017       0.01419330       0.09122726
Pd       5.50129076       2.75064538      10.00000000  F       0.01824989      -0.04114107       0.03462746
Pd       8.25193614       2.75064538      10.00000000  F       0.08895732      -0.08328931       0.13947450
Pd      11.00258152       2.75064538      10.00000000  F      -0.13153482       0.00642103       0.06694467
Pd       0.00000000       5.50129076      10.00000000  F      -0.03365380       0.03918200       0.03035524
Pd       2.75064538       5.50129076      10.00000000  F      -0.01387132       0.03913064       0.02315677
Pd       5.50129076       5.50129076      10.00000000  F      -0.04098766      -0.05999400      -0.07436824
Pd       8.25193614       5.50129076      10.00000000  F       0.14058091      -0.14634580      -0.07125601
Pd      11.00258152       5.50129076      10.00000000  F      -0.01036402      -0.06231958       0.04039268
Pd       0.00000000       8.25193614      10.00000000  F      -0.00291708       0.03471080       0.02745367
Pd       2.75064538       8.25193614      10.00000000  F      -0.02862908       0.03024238      -0.00904120
Pd       5.50129076       8.25193614      10.00000000  F      -0.05209524      -0.04116491      -0.08011925
Pd       8.25193614       8.25193614      10.00000000  F       0.20615271      -0.08537710      -0.08231082
Pd      11.00258152       8.25193614      10.00000000  F       0.06740138      -0.04878264       0.01076171
Pd       0.00000000      11.00258152      10.00000000  F       0.03693898       0.05265422      -0.04401947
Pd       2.75064538      11.00258152      10.00000000  F      -0.05936044       0.14149487       0.10117183
Pd       5.50129076      11.00258152      10.00000000  F      -0.18435857      -0.00507908      -0.05184291
Pd       8.25193614      11.00258152      10.00000000  F       0.15131010      -0.08490843      -0.11884210
Pd      11.00258152      11.00258152      10.00000000  F       0.07829466      -0.09308244      -0.09376816
Pd       1.37608291       1.37636041      11.99714953  T      -0.00569127       0.00121984       0.00260018
Pd       4.13647128       1.39803807      11.97478555  T      -0.00591180      -0.00634875       0.01792017
Pd       6.85079475       1.37862642      12.00481230  T      -0.00995067       0.00505756      -0.00678347
Pd       9.62341640       1.34237682      12.02198008  T      -0.00420558       0.00473883      -0.00801998
Pd      12.33754832       1.38445030      11.92932305  T       0.00061310      -0.01155391      -0.01377620
Pd       1.35788808       4.16195871      11.96061645  T      -0.00981208      -0.00352725       0.01871600
Pd       4.14877575       4.13841974      11.95452457  T       0.00648579       0.00591437      -0.01798288
Pd       6.90730580       4.11187235      11.96508901  T      -0.01567191      -0.02264122      -0.01337738
Pd       9.63252174       4.08286767      12.02318657  T       0.00427673      -0.00614709      -0.00182354
Pd      12.34171844       4.14497680      11.97101515  T      -0.00014664       0.00184672      -0.01567059
Pd       1.37074511       6.92031249      11.95698384  T       0.02048689      -0.00450807      -0.01901838
Pd       4.13118820       6.88852337      11.95797920  T      -0.00246040      -0.00327086       0.01203190
Pd       6.89831688       6.83224221      11.91221876  T      -0.00187449       0.01818586       0.00589354
Pd       9.65542363       6.82149510      11.96459282  T       0.00936446       0.00516171      -0.00392073
Pd      12.38361965       6.88435446      11.98192250  T      -0.01506754      -0.00031378      -0.02536492
Pd       1.35221302       9.67493947      11.97293372  T       0.01718166       0.00833996      -0.00988505
Pd       4.11061645       9.64699853      11.93127548  T      -0.00963179       0.00273045      -0.01055636
Pd       6.91679039       9.59940359      11.89546272  T      -0.00640960       0.00167134      -0.01545732
Pd       9.70375621       9.60227479      11.96267460  T      -0.00626207       0.00508092      -0.00687404
Pd      12.41584134       9.63096278      11.98121846  T      -0.00312322      -0.00943435      -0.01371321
Pd       1.33302399      12.42209814      12.00639509  T      -0.00079662      -0.00544842       0.00724132
Pd       4.07344353      12.45671125      12.00046257  T       0.00240863      -0.00305768       0.00486494
Pd       6.83663648      12.38388295      11.87300724  T      -0.00134066      -0.00688181       0.00147993
Pd       9.65153816      12.35693179      11.92795228  T       0.00646940       0.00059667       0.00403263
Pd      12.36789645      12.37284600      11.94376411  T      -0.01304796      -0.00212865      -0.00584004
Pd      -0.20180725       0.05589315      13.99445228  T       0.01206169       0.00519837       0.00421465
Pd       2.43876096      -0.05843901      14.23192755  T       0.00452891      -0.00375884      -0.01477967
Pd       5.39471620      -0.09960901      14.30412019  T      -0.02012172       0.01947206      -0.01118758
Pd       8.22345853      -0.17373412      13.80663065  T      -0.00791055       0.00408816       0.00096856
Pd      10.83256505      -0.09296738      14.21178741  T      -0.01191397       0.00079497       0.00445573
Pd       0.03044191       2.85799604      13.89282151  T      -0.00743344      -0.01634226       0.02414638
Pd       2.74584232       2.93386933      13.95886085  T       0.00980885      -0.01856693       0.01701921
Pd       5.63705022       2.87834896      14.06240380  T       0.01232811      -0.01609703      -0.00947506
Pd       8.32085155       2.80494800      13.99613618  T      -0.00530047      -0.01020150       0.00451962
Pd      11.04544011       2.60854688      14.10208772  T      -0.01544963       0.01608308      -0.01542118
Pd      -0.01844607       5.56761781      13.95756782  T      -0.01400642       0.00734519       0.00833033
Pd       2.72073963       5.58907632      13.92797192  T       0.02430512       0.01863576       0.01153515
Pd       5.50906024       5.50161173      13.91286544  T      -0.01710745       0.01704697       0.00848223
Pd       8.19444161       5.50538208      13.99604575  T       0.00293262       0.01276320       0.00781453
Pd      10.97297489       5.40609211      13.99877222  T      -0.00596489      -0.00583282      -0.01033772
Pd       0.06342940       8.33788588      13.95925038  T       0.00564268       0.01314376       0.01569657
Pd       2.76758888       8.32205192      13.92128594  T       0.00845695      -0.01732881       0.01126908
Pd       5.61364087       8.18068207      13.83864960  T      -0.00633540      -0.02060802       0.00426306
Pd       8.29920074       8.20642855      13.85067822  T       0.00379351       0.00458291       0.00699619
Pd      11.04765766       8.22529899      13.96151367  T       0.00116201      -0.00716027       0.00180168
Pd       0.05358900      11.07779959      14.12604886  T       0.01553529      -0.01978683      -0.00850222
Pd       2.69418159      11.03328926      13.90198532  T      -0.01253281       0.00509318      -0.00655968
Pd       5.47331840      11.00307748      13.75518892  T       0.01361430      -0.00076922       0.00017916
Pd       8.34145402      10.89866256      13.84993188  T      -0.00227139      -0.00365805      -0.00792207
Pd      11.05332330      10.98189477      13.97247631  T      -0.00584811       0.00719759      -0.00633522
Pd      12.45970969       6.88099176      16.03802439  T      -0.00417350       0.01834528       0.01165784
Pd      10.68937609       9.61212268      16.24334702  T      -0.01151592       0.00781713      -0.00561769
Pd       2.25111627      11.92327642      16.53395553  T       0.00699931       0.00377566      -0.00083077
Pd       1.62564523       6.69870765      16.43896864  T      -0.00806956       0.00332352      -0.00425178
Pd       0.31627268      10.04117841      16.69683964  T       0.01986552      -0.00589638      -0.00122359
Pd       6.48660452       1.27896894      16.97717330  T      -0.01619395       0.00528918      -0.00490840
Pd       8.04287431       9.46960662      16.15675228  T       0.00619510       0.00062612      -0.00443198
Pd       5.98997996       9.81442073      17.96692825  T       0.03058928       0.01232625       0.00898637
Pd       4.07912075       9.89445111      15.87060116  T       0.00946870       0.00054773      -0.00478710
Pd       9.45557979      12.10302807      16.05372815  T      -0.00834135      -0.00489749       0.00046210
Pd       1.24672395       4.08692449      15.83057127  T      -0.00056878       0.00405863       0.01221828
Pd       4.18959508       4.28726723      16.23439792  T      -0.03427944       0.00917484       0.01008587
Pd      10.93459219       3.76710415      16.62922652  T      -0.00552348       0.02910833      -0.00515212
Pd       3.48346148       8.38251068      17.83578742  T      -0.01291560       0.00780827       0.02086681
Pd       6.55344745       6.94049760      17.04215971  T       0.01188057      -0.00228601       0.00425380
Pd       6.52094437      -1.40490434      16.96441155  T       0.00417217      -0.01296175       0.00511773
Pd       9.50539312       7.23660862      16.04828436  T       0.00069327      -0.00846511      -0.00601434
Pd       8.05268308       4.01585875      16.76804163  T       0.00839931       0.00223540       0.00408386
Pd       9.58104670       1.36806122      16.27842486  T       0.00483209      -0.01232606      -0.00439116
Pd       4.23326504       6.95495768      15.71717539  T       0.00157523      -0.03091884      -0.01540069
O        8.10218956       2.23325080      17.55840908  T       0.00058127       0.00021217      -0.00720124
O       12.24823054      10.16899749      17.14604302  T       0.00033316      -0.00766247       0.01135307
O       12.70080687       1.65288369      14.98478079  T      -0.01067555      -0.02129795       0.01098401
O        7.92489130       1.19406581      15.20354223  T      -0.02529033       0.00488547      -0.01466870
O       12.34129789      -1.41536627      14.94781324  T       0.00038255       0.00350423       0.00468463
O        5.36162881       7.90777706      18.30034538  T       0.01985558       0.00768771       0.00399381
O        4.05747166       1.32349145      14.09704737  T       0.02484270       0.00608343      -0.00415226
O        2.01881089       0.91459930      16.02195329  T       0.00140231      -0.01081564      -0.01604232
O        8.04736674      11.19169598      17.31623543  T      -0.02448637      -0.00939662       0.00349787
O        2.30929478       9.90442334      16.88492158  T       0.00362915      -0.00553585       0.00430160
O        1.90843894       0.03732902      17.00220905  T       0.00985227      -0.00906684       0.00097943
O        2.53670946       5.05451044      17.01963592  T       0.01514983      -0.03878710      -0.01851779
O        7.91161869       5.85958217      16.04439402  T       0.01092615       0.01160383      -0.00675449
O        6.79779939      12.24365937      14.80384895  T      -0.00496677       0.00238131      -0.01218540
O        5.83649054       3.21202628      16.06166635  T      -0.00380587      -0.01995693      -0.00811275
O       11.06134969       1.99500889      17.28315405  T       0.00104380      -0.02783923       0.00908998
O       10.91076119       5.65431109      16.05629513  T      -0.00513258      -0.00910809      -0.01138123
O        0.28556451       8.09724595      15.99943416  T       0.00923347      -0.01387646      -0.01725968
O        5.17663503      -0.05276115      16.42937152  T       0.00482463       0.03078441       0.00458952
O        5.93729480       9.62953792      15.21184569  T       0.00263227       0.01069849       0.00501701
