60
Properties=species:S:1:pos:R:3 entry_id=27 rank=0 energy=-500.8656311035156 parent_id=26 pbc="F F F"
C       -3.06734874      -0.38619970       1.11697108
C        2.69229892      -1.15014264      -1.56643330
C        2.37826054       0.74274372       1.97101728
C       -0.72038025      -3.25191468      -0.43048654
C       -3.37225904      -1.62481715       0.44397241
C       -0.04890725       2.99422861      -0.72577159
C       -1.85884114       1.48407902       3.18412906
C       -0.20553003      -2.05769314       1.71817124
C       -1.42729731       0.74969718      -3.83579173
C       -2.88683378      -3.52114442      -2.21843794
C        1.50015914      -2.30860213       0.01275735
C        2.60528771       3.60060061       1.56054846
C       -0.62771489      -2.83002204      -1.80004268
C        0.57072496       3.69155224       0.37931879
C        2.30476324       2.38449163      -1.37254032
C       -3.87441244      -2.97031112      -1.37698628
C        2.92234766       1.11906093      -1.42478660
C       -0.09404628      -0.00894648       3.10281168
C        0.59321253      -1.00019742       2.33216045
C        3.23172710      -0.83312673      -0.26811172
C       -2.49126402      -2.62225372       0.94102959
C       -1.12414157      -0.54069349      -3.35863930
C       -0.62796318       2.17237398       3.60551784
C       -3.73022382      -1.64829768      -0.90830286
C       -0.76841183       3.03221499       2.45891966
C       -2.98320749      -3.97132113      -0.88518287
C       -2.79698792       0.58338193      -1.13223000
C       -1.61696516      -2.00367537       1.88962232
C       -2.15666060      -1.29633823      -2.73268693
C        3.27205966       1.27882323       0.98994051
C        1.13389144       0.29415514      -2.84804694
C        1.64576185      -2.07767414      -1.38939485
C        0.46484152       1.23605072       3.44865665
C        1.95996879       4.06324921       0.33142278
C        1.87774149      -0.62138056       1.79380731
C        0.21172178      -0.80332278      -2.94997431
C       -2.20782677      -0.74554609       2.21229388
C       -1.49963264       0.12662546       3.02230118
C        2.37799527      -1.40956904       0.71068016
C        1.63360311       1.67772571       2.78401935
C       -2.00633625      -3.59082479       0.05639778
C       -1.82170129      -2.67212530      -2.53916435
C        3.37796911       2.67910307       0.80924224
C       -1.41012644       2.40548214      -0.59491314
C        0.24756198      -2.70794629       0.52080812
C       -1.84224674       1.82760341      -3.01456217
C        0.61783305       1.63666165      -2.85314144
C        2.38480818       0.06988539      -2.21364146
C        1.59267321       3.03127093       2.34899552
C       -2.08985250       1.91966133       0.63378208
C        2.82653048       3.23213395      -0.40127384
C        3.45718148       0.56048085      -0.21895941
C        0.92492366       2.49057274      -1.74308862
C       -2.84323795       0.73752755       0.29077131
C        0.48187586      -2.00208677      -2.19043706
C       -2.10854590       1.71569798      -1.64838446
C       -0.55976646       1.84685401      -3.59122320
C        0.36100990       3.42622814       1.76172105
C       -3.03197956      -0.71544253      -1.73582835
C       -1.86898165       2.28913707       1.96772227
