115
Lattice="13.75323 0.0 0.0 0.0 13.75323 0.0 0.0 0.0 23.89" Properties=species:S:1:pos:R:3:move_mask:L:1:forces:R:3 energy=-603.9466820594841 stress="0.009596916727602935 -0.0002820855408016031 7.098850795625553e-05 -0.0002820855408016031 0.008163570879208534 -9.118376503704052e-05 7.098850795625553e-05 -9.118376503704052e-05 7.096963978954571e-05" pbc="T T T"
Pd       0.00000000       0.00000000      10.00000000  F       0.13045907      -0.08432427       0.02954240
Pd       2.75064538       0.00000000      10.00000000  F      -0.02474034       0.00515394       0.09362180
Pd       5.50129076       0.00000000      10.00000000  F       0.00718666       0.09507353      -0.00766442
Pd       8.25193614       0.00000000      10.00000000  F      -0.05327835       0.04940425      -0.05324791
Pd      11.00258152       0.00000000      10.00000000  F       0.07836587      -0.10297111      -0.05291257
Pd       0.00000000       2.75064538      10.00000000  F       0.11395397      -0.01488179       0.05964042
Pd       2.75064538       2.75064538      10.00000000  F      -0.04198207      -0.03505061       0.13550625
Pd       5.50129076       2.75064538      10.00000000  F      -0.04552133       0.06945310       0.03477252
Pd       8.25193614       2.75064538      10.00000000  F      -0.08456241       0.05373918      -0.05385704
Pd      11.00258152       2.75064538      10.00000000  F       0.03524410      -0.00014902      -0.09730424
Pd       0.00000000       5.50129076      10.00000000  F       0.02852897      -0.13759925       0.03513932
Pd       2.75064538       5.50129076      10.00000000  F      -0.07905859      -0.11928451       0.02491578
Pd       5.50129076       5.50129076      10.00000000  F      -0.04614882       0.02979938       0.03700100
Pd       8.25193614       5.50129076      10.00000000  F      -0.04637182       0.04755434       0.01225736
Pd      11.00258152       5.50129076      10.00000000  F       0.04771116      -0.05431183      -0.05295462
Pd       0.00000000       8.25193614      10.00000000  F      -0.03726655      -0.06324786       0.01629638
Pd       2.75064538       8.25193614      10.00000000  F      -0.04591043       0.02756697      -0.01962944
Pd       5.50129076       8.25193614      10.00000000  F      -0.03364531       0.08257343      -0.03360526
Pd       8.25193614       8.25193614      10.00000000  F      -0.02192428       0.02073036       0.02188817
Pd      11.00258152       8.25193614      10.00000000  F       0.06535771      -0.02152521      -0.08583083
Pd       0.00000000      11.00258152      10.00000000  F       0.04428276      -0.04898258      -0.05964514
Pd       2.75064538      11.00258152      10.00000000  F      -0.02439612       0.06528132       0.02237966
Pd       5.50129076      11.00258152      10.00000000  F       0.03361744       0.11620484       0.03383103
Pd       8.25193614      11.00258152      10.00000000  F      -0.02191454       0.01545749       0.01442139
Pd      11.00258152      11.00258152      10.00000000  F       0.08484347      -0.08386726      -0.03434383
Pd       1.37667708       1.34308375      12.01571985  T      -0.00232957       0.00230170       0.00219127
Pd       4.15347828       1.38176856      11.98498028  T       0.00051219       0.00874889       0.00080467
Pd       6.85367749       1.44026097      11.98626846  T       0.00141822       0.00636742      -0.00120669
Pd       9.62655772       1.37995902      11.92582656  T       0.00178330      -0.00327865      -0.00154330
Pd      12.40578209       1.33383552      11.93324261  T       0.00262345       0.00126022       0.00119674
Pd       1.37610271       4.05330346      12.02973383  T      -0.00469001       0.00031279       0.00158861
Pd       4.11097354       4.14102834      11.97096819  T      -0.00521390       0.00353057      -0.00527126
Pd       6.86387907       4.16504130      11.97298492  T      -0.00291822       0.00891685      -0.00461518
Pd       9.61973097       4.11970122      11.94433313  T      -0.00235082       0.00449523      -0.00238141
Pd      12.37789381       4.08994331      11.96328022  T      -0.00248939      -0.00224194      -0.00306143
Pd       1.35691123       6.82401942      11.94810583  T       0.00562203      -0.00402905       0.00222814
Pd       4.09141744       6.91022463      11.94728385  T       0.00368049      -0.00228286      -0.00569103
Pd       6.84446526       6.91724047      11.95128444  T       0.00289330       0.00398983      -0.00371508
Pd       9.64867471       6.87617497      11.94368156  T      -0.00446945       0.00028201       0.00243599
Pd      12.37485593       6.83732932      11.96939471  T      -0.00495366      -0.00155525       0.00060759
Pd       1.35695893       9.61686686      11.94467879  T       0.00343808      -0.00027741       0.00253355
Pd       4.12901306       9.67496910      11.95902222  T      -0.00519916      -0.00345614       0.00051085
Pd       6.87135660       9.67853173      11.95827294  T       0.00105671       0.00029336       0.00079088
Pd       9.64605732       9.60822380      11.95601818  T      -0.00292621      -0.00569644       0.00255122
Pd      12.38033581       9.58921222      11.98588603  T       0.00046593       0.00277731       0.00276037
Pd       1.39211553      12.37274611      12.00918851  T       0.00165148      -0.00001417       0.00197126
Pd       4.14737693      12.41035447      11.97179314  T       0.00560596       0.00638532       0.00810804
Pd       6.88855841      12.46899069      11.97854220  T      -0.00362179       0.00078575       0.00241978
Pd       9.65084843      12.35547063      11.92790928  T      -0.00729170      -0.00750772      -0.00172190
Pd      12.43510618      12.30514652      11.97725646  T      -0.00525436       0.00321448       0.00125572
Pd       0.08799836      -0.05402218      14.07540431  T       0.00290429       0.00245050       0.00449314
Pd       2.75256753      -0.10810571      13.99388701  T       0.00238078       0.00132112      -0.00259065
Pd       5.53873160       0.29613899      14.23766288  T      -0.00077414       0.00634141      -0.00256556
Pd       8.25122893       0.09662102      13.86930346  T      -0.00048582      -0.00217277      -0.00612943
Pd      11.11860567      -0.17366752      13.83077235  T      -0.00134783       0.00223954       0.00194017
Pd      -0.04490730       2.64148994      14.00353813  T       0.00018380      -0.00141212       0.00339724
Pd       2.80995079       2.69111679      14.01125152  T      -0.00023050       0.00198526      -0.00198027
Pd       5.55370614       2.97135841      14.04740217  T       0.00116249       0.01028434      -0.00615079
Pd       8.23573970       2.81240983      13.99274453  T       0.00074916       0.00075136      -0.00118416
Pd      10.93728644       2.68852566      13.90008983  T       0.00298110      -0.00745540      -0.00299575
Pd      -0.00622166       5.42407156      13.96804823  T      -0.00524082       0.00442157      -0.00519895
Pd       2.68806515       5.46827434      13.98907041  T      -0.00281689      -0.00196589       0.00161156
Pd       5.35579130       5.64464694      13.89929256  T      -0.00496241       0.00781447      -0.00149298
Pd       8.32589192       5.53956086      13.84353224  T      -0.00703746      -0.00623659      -0.00231693
Pd      11.02638653       5.39677207      13.94158154  T      -0.01105609      -0.00642062       0.00300684
Pd       0.00714891       8.18853912      13.90492237  T       0.00090620      -0.00063069       0.00167081
Pd       2.70061429       8.22240424      13.87302644  T       0.00321864      -0.00320448      -0.00089074
Pd       5.39313211       8.43419464      13.96868410  T       0.00143157       0.00852148      -0.00306905
Pd       8.27013559       8.25031039      13.87289964  T       0.01050386       0.00072458       0.00370430
Pd      10.99665647       8.13998137      13.99252275  T       0.00022336      -0.00202522       0.00572111
Pd      -0.02214746      10.94848474      14.04858986  T       0.00014899       0.00331269      -0.00043624
Pd       2.77845682      10.94152374      13.92498835  T       0.00563577       0.00067108      -0.00106912
Pd       5.58025938      11.25217491      13.92745625  T      -0.00022086      -0.00062877       0.00872575
Pd       8.29593748      10.97347680      13.89708691  T       0.00322643      -0.00431639      -0.00254001
Pd      11.02726200      10.89939390      13.97438401  T       0.00456172       0.00324024      -0.00555877
Pd      12.41245186       6.58926721      16.08855177  T      -0.00719352       0.00036755       0.00183373
Pd       9.42639985       9.38237323      15.97611588  T       0.01836388      -0.00824986       0.00057247
Pd       2.58504043      12.19507201      16.41218873  T       0.00004317      -0.00420373       0.00428421
Pd       1.39527575       6.44084799      16.46303083  T      -0.01049260       0.00087760      -0.00314604
Pd      -1.39290821       9.44310784      16.07007191  T      -0.00083263       0.00221274       0.00207675
Pd       7.70444536       1.73171662      16.77617889  T      -0.00541774       0.00963216      -0.00296886
Pd       6.87707711      10.01692176      17.13935902  T       0.00755074       0.00544693       0.00497016
Pd       4.75387286       8.40008716      18.04036154  T      -0.01821989      -0.00618192       0.00936319
Pd       4.30645046      10.13539495      16.02030369  T      -0.00281939       0.01376225       0.00798755
Pd       9.40978679      11.91428664      16.97478512  T      -0.00470011      -0.01326043       0.00082157
Pd       1.24377706       3.82977747      15.84114674  T       0.00173271       0.00994702      -0.00847194
Pd       4.09696879       4.29212320      16.31032022  T       0.00549193       0.00979052       0.00272251
Pd      10.67203861       3.22434524      16.58439893  T       0.00324498      -0.00565807       0.00386530
Pd       2.11546987       8.99221145      16.38982999  T       0.00019443       0.00140549      -0.00118457
Pd       6.88851178       7.01300595      16.79885634  T       0.01271455       0.01614097      -0.00898001
Pd       6.96388400      -0.99362796      17.09714465  T      -0.00933350       0.00504484       0.01831460
Pd       9.52292029       6.71749515      16.01837269  T       0.00074653      -0.01313812       0.00567390
Pd       7.76805904       4.38296516      16.35927317  T       0.00363039      -0.00456976       0.01705428
Pd      10.16490967       0.67964015      16.94947106  T      -0.00220625       0.00010491      -0.00353767
Pd       4.03676567       7.03017854      15.87406524  T      -0.00824896      -0.00331804      -0.00089465
O        8.88275246       3.20383208      17.47544925  T      -0.00477105       0.00001671       0.00179449
O       10.92341990      10.79465828      16.08092960  T       0.00584386       0.00874437      -0.00377378
O       12.39819352      -0.51389027      15.58812734  T      -0.00913772       0.00379001       0.00439698
O        9.89140733       1.00384030      14.92466192  T      -0.00888218       0.00284188      -0.00594433
O       12.11946633       0.11049917      16.73659095  T      -0.00194173      -0.01703988      -0.01206840
O        6.80513616       8.35177127      18.24570457  T       0.01545149       0.00542497      -0.01015215
O        3.78052304       1.22472167      15.00363526  T      -0.00706519       0.00690631       0.00054989
O        2.42189989       0.18324814      17.53580481  T      -0.00837408       0.00881493      -0.00356379
O        8.34549327      12.40404568      15.31240774  T      -0.00255756       0.00780454      -0.00500380
O        1.40069767      10.83287609      15.58924654  T       0.00654078      -0.00637878      -0.00624949
O        3.66078768      -0.28650001      17.49163073  T      -0.01112673       0.00628705      -0.00608078
O        2.38747005       4.86927786      17.10081818  T       0.00090693       0.00262147      -0.00422206
O        6.86237739       5.75184256      15.28688909  T      -0.00503218       0.00281322      -0.00509739
O        5.94712244      11.33236425      15.97273377  T       0.00909270       0.00392434      -0.00948390
O        5.80174654       3.40518261      16.00930012  T      -0.00034176      -0.00002492      -0.00247203
O       12.27097424       2.77384119      15.45330630  T       0.00424849      -0.00045753       0.00039513
O       10.95980306       5.25262169      16.05828426  T      -0.00029252      -0.00927935       0.00461664
O        0.09437929       8.02577703      16.01792622  T      -0.00773093       0.00265919       0.00661376
O        6.25403512       0.58301964      16.17791920  T      -0.00671432      -0.00516402       0.00213937
O        6.89751957       8.51588377      15.31504308  T       0.00171182       0.00680836      -0.00982770
115
Lattice="13.75323 0.0 0.0 0.0 13.75323 0.0 0.0 0.0 23.89" Properties=species:S:1:pos:R:3:move_mask:L:1:forces:R:3 energy=-604.6031122225769 stress="0.01001603705208186 -9.526227995935233e-05 -0.00010774200267214996 -9.526227995935233e-05 0.008308684337776382 -1.8062907910569226e-05 -0.00010774200267214996 -1.8062907910569226e-05 8.485645730447328e-05" pbc="T T T"
Pd       0.00000000       0.00000000      10.00000000  F       0.12737378      -0.05910083       0.04613935
Pd       2.75064538       0.00000000      10.00000000  F      -0.02451663       0.02378178       0.12467615
Pd       5.50129076       0.00000000      10.00000000  F      -0.01709879       0.08702442       0.01113153
Pd       8.25193614       0.00000000      10.00000000  F      -0.07251607       0.01294188      -0.08867107
Pd      11.00258152       0.00000000      10.00000000  F       0.11488423      -0.12088337      -0.06182291
Pd       0.00000000       2.75064538      10.00000000  F       0.07398501      -0.02384848       0.06614411
Pd       2.75064538       2.75064538      10.00000000  F      -0.09516620      -0.04219351       0.11549472
Pd       5.50129076       2.75064538      10.00000000  F      -0.08641940       0.05408577       0.01417740
Pd       8.25193614       2.75064538      10.00000000  F      -0.13018784       0.06144963      -0.07968668
Pd      11.00258152       2.75064538      10.00000000  F       0.04147692       0.00229508      -0.11140918
Pd       0.00000000       5.50129076      10.00000000  F      -0.00065962      -0.14283231       0.02842663
Pd       2.75064538       5.50129076      10.00000000  F      -0.10502098      -0.10618860       0.02234477
Pd       5.50129076       5.50129076      10.00000000  F      -0.05982443       0.03714720       0.01958296
Pd       8.25193614       5.50129076      10.00000000  F      -0.05743053       0.07363150      -0.00339878
Pd      11.00258152       5.50129076      10.00000000  F       0.06577894      -0.03789610      -0.05395872
Pd       0.00000000       8.25193614      10.00000000  F      -0.04226451      -0.06555809       0.02141146
Pd       2.75064538       8.25193614      10.00000000  F      -0.04914599       0.04804286      -0.02995800
Pd       5.50129076       8.25193614      10.00000000  F      -0.01248381       0.10169165      -0.04313230
Pd       8.25193614       8.25193614      10.00000000  F       0.00096643       0.02896231       0.01944567
Pd      11.00258152       8.25193614      10.00000000  F       0.08153117      -0.03197419      -0.06198013
Pd       0.00000000      11.00258152      10.00000000  F       0.06670131      -0.06393775      -0.06535484
Pd       2.75064538      11.00258152      10.00000000  F      -0.00318109       0.07878826       0.05030236
Pd       5.50129076      11.00258152      10.00000000  F       0.05197306       0.11870313       0.05956504
Pd       8.25193614      11.00258152      10.00000000  F      -0.01520868       0.00419772       0.01386681
Pd      11.00258152      11.00258152      10.00000000  F       0.09409384      -0.10448274      -0.03113331
Pd       1.36011609       1.35628498      12.03117187  T       0.00784172       0.00928307       0.00628585
Pd       4.12618988       1.39417400      11.99032749  T       0.00289211       0.01258677      -0.00338439
Pd       6.83750129       1.42688211      11.97637478  T       0.01575460       0.00750309      -0.00183092
Pd       9.61347248       1.36639415      11.90273585  T       0.00565100       0.00821925       0.01076530
Pd      12.39970157       1.34096289      11.94161473  T      -0.01471141      -0.01760895       0.00835362
Pd       1.34287397       4.05186911      12.02932466  T       0.01468637       0.01192736      -0.00419993
Pd       4.08291652       4.13509584      11.96444626  T      -0.00110086       0.01191550       0.01778099
Pd       6.84241745       4.16692137      11.96132743  T       0.00268047       0.00608353      -0.00276064
Pd       9.60755728       4.13035760      11.93031397  T      -0.01495784       0.00217923       0.00846419
Pd      12.36142341       4.08044428      11.97710394  T      -0.00282932       0.00901994       0.00550961
Pd       1.35114418       6.82796715      11.94677984  T      -0.00055573       0.00756291       0.00116333
Pd       4.09752959       6.91794921      11.93750159  T      -0.01442230      -0.00540750       0.00059791
Pd       6.85207529       6.92426057      11.95020234  T      -0.00134409       0.00777108       0.00516725
Pd       9.65408973       6.87985406      11.94953572  T      -0.01391998      -0.00035495      -0.00691836
Pd      12.37857946       6.82609540      11.97705824  T      -0.00786842       0.00155526       0.00643809
Pd       1.36192159       9.61917076      11.94626789  T       0.00514444       0.00549381       0.00373871
Pd       4.13729450       9.67674635      11.96035607  T      -0.01514233       0.01511833      -0.01574563
Pd       6.88473792       9.67635768      11.96376281  T      -0.00911852       0.00596230      -0.00253869
Pd       9.65278318       9.60508260      11.96177733  T      -0.00427780      -0.00342643      -0.01026343
Pd      12.38816227       9.58071509      11.98950264  T      -0.00147175      -0.00540705      -0.01017196
Pd       1.40094883      12.38336538      12.00777461  T       0.00395226      -0.01531658       0.01182603
Pd       4.15922948      12.41779922      11.97962094  T      -0.01302660      -0.00157759      -0.00485930
Pd       6.89961791      12.46437276      11.98409575  T       0.00186319       0.00308078      -0.00160234
Pd       9.65278900      12.34696431      11.92810825  T      -0.00331326       0.00674546       0.00076635
Pd      12.44463939      12.29984929      11.96994521  T       0.00640502      -0.01102977       0.00721285
Pd       0.09819503      -0.05635028      14.07109990  T       0.02278218      -0.02639430       0.00100481
Pd       2.76753720      -0.07332944      13.99452511  T      -0.01469520       0.00895502      -0.00307477
Pd       5.54831453       0.25086146      14.21724455  T      -0.01069002       0.00931274      -0.00190643
Pd       8.27486938       0.10964900      13.87603913  T       0.00595366       0.00929704       0.01408661
Pd      11.13499049      -0.19353130      13.81802876  T       0.00406695       0.00407242       0.00583919
Pd      -0.15211256       2.62632803      14.03720627  T       0.00745043       0.01533552      -0.00545988
Pd       2.68311979       2.74527173      14.08736842  T      -0.00841962       0.00696470       0.04408627
Pd       5.48976475       2.92963162      14.01071553  T       0.00079802      -0.00170911       0.00290867
Pd       8.18009229       2.82106816      13.94481169  T      -0.00685497      -0.00742318       0.01450225
Pd      10.85703348       2.68569447      13.89031226  T      -0.02125964       0.00345942       0.00479022
Pd      -0.00827565       5.39211267      13.99287072  T       0.01363795      -0.00714969       0.00516418
Pd       2.68566744       5.48642723      13.93048253  T      -0.00455733      -0.00780558       0.01368617
Pd       5.35728421       5.63107677      13.87802186  T       0.00082897      -0.00511717      -0.00152991
Pd       8.30967866       5.54861047      13.83673815  T      -0.00531273       0.00403329      -0.00438000
Pd      11.01396287       5.37723670      13.94575856  T       0.01245411      -0.00919176      -0.00180659
Pd       0.01752327       8.17518817      13.91330761  T      -0.00470939       0.00694819      -0.02035507
Pd       2.70894435       8.23537410      13.87942219  T      -0.00062829      -0.00388087      -0.02294930
Pd       5.39367801       8.42394866      13.97093803  T      -0.01081638       0.00265823      -0.01277718
Pd       8.28506540       8.25807716      13.89308197  T       0.00415240      -0.00475898      -0.00595814
Pd      11.00901303       8.13149408      13.99931507  T       0.00300921       0.00028647      -0.00902215
Pd      -0.00163909      10.94260752      14.05235147  T       0.01240131      -0.00758380       0.00447503
Pd       2.78565384      10.95717666      13.91776639  T       0.01534067       0.00297572       0.03514865
Pd       5.60145847      11.22868591      13.91977157  T      -0.00987284       0.02281327       0.00110976
Pd       8.32030483      10.97604383      13.91505236  T      -0.00390276      -0.00503820      -0.00759602
Pd      11.04519876      10.89055608      13.97152374  T       0.00613044      -0.00032501      -0.01670435
Pd      12.40482861       6.61309326      16.09710784  T       0.01484200      -0.02049309      -0.02712248
Pd       9.47907209       9.36824262      15.99927744  T       0.00574753      -0.00877444      -0.00225808
Pd       2.58564886      12.20259009      16.39705898  T      -0.02486880      -0.01399225      -0.02488101
Pd       1.38333303       6.38997640      16.30010838  T      -0.01491606       0.02708400       0.02324410
Pd      -1.36940675       9.46114705      16.06956345  T       0.01123051      -0.00674027       0.00976214
Pd       7.77041035       1.70081345      16.64362187  T       0.01843008       0.01182484      -0.00868176
Pd       6.90148900      10.00229546      17.12604501  T      -0.00099883       0.01059392       0.02405449
Pd       4.79936207       8.40513140      17.94367248  T      -0.01762761      -0.00318449      -0.04880313
Pd       4.31566031      10.16572034      16.01629223  T       0.00541418       0.00092709       0.00201715
Pd       9.46321442      11.92148140      16.99501620  T      -0.01108711      -0.01074408      -0.01002222
Pd       0.63714040       3.79200353      16.28725526  T      -0.00197167       0.01098316      -0.00738815
Pd       4.02708847       4.21644761      16.14675597  T       0.04353676       0.00892228      -0.01505249
Pd      10.90888678       3.18480212      16.55297978  T       0.03479193       0.00380451      -0.01238483
Pd       2.16906016       8.95477001      16.42175921  T       0.00944912      -0.00047103      -0.00148525
Pd       6.89613588       7.00454552      16.80182962  T      -0.00129954       0.02143282       0.01922310
Pd       7.01496123      -0.99727626      17.06819144  T      -0.01511222       0.01103529       0.00797686
Pd       9.52646950       6.68982474      16.01562588  T      -0.01179606      -0.01533619       0.01069345
Pd       7.77524639       4.35102203      16.29640403  T       0.04315875      -0.03344479       0.00103643
Pd      10.25540980       0.67719257      16.94166034  T       0.00417855      -0.01382469       0.02171002
Pd       4.03425426       6.97956586      15.86615708  T       0.00693817       0.02432371       0.01153161
O        9.02457285       3.15688175      17.25248341  T       0.01292127      -0.00083831      -0.03592741
O       10.95345223      10.81523780      16.07324353  T       0.00429295      -0.01591124      -0.00309357
O       12.44938209      -0.54790055      15.58504090  T      -0.00603911      -0.02479206       0.02561705
O        9.99311512       1.04143213      14.91119712  T      -0.00528140      -0.00489213       0.02649971
O       12.19238364       0.07167116      16.74295589  T       0.00129923      -0.03867053      -0.03901903
O        6.82686940       8.34812903      18.24614292  T      -0.01099802      -0.01512164      -0.01132492
O        3.80513825       1.28815721      14.96754584  T      -0.01692058      -0.00648700       0.00629383
O        2.41272766       0.22556501      17.46389719  T       0.02411151      -0.00651154       0.02693078
O        8.39485714      12.41833332      15.33059619  T      -0.00058656      -0.00898073      -0.00960549
O        1.42663278      10.80217525      15.59818823  T       0.01751966       0.01141484      -0.01406017
O        3.65484072      -0.23636514      17.42944519  T      -0.03779888       0.01597272       0.01788839
O        2.27029725       4.71740054      16.84575713  T      -0.01165468       0.02112482       0.02201714
O        6.83785603       5.74815105      15.29356992  T      -0.02996491       0.00084500      -0.01211976
O        5.98102612      11.32354326      15.95855044  T      -0.00668328       0.00246143      -0.00404609
O        5.78323305       3.39174248      15.95739523  T       0.03995814       0.00744330       0.00526197
O       12.77065925       2.79865063      15.92440003  T       0.02880758       0.00329262      -0.03574719
O       10.99173667       5.22865068      16.03322372  T      -0.01395637       0.02331697       0.03125110
O        0.10471821       8.04403885      16.02641432  T       0.00225797       0.00169740       0.00857100
O        6.26138513       0.56886912      16.15368639  T       0.00032494       0.00679412      -0.00893463
O        6.89310109       8.50453791      15.31210886  T       0.00660788       0.00745139      -0.01491114
115
Lattice="13.75323 0.0 0.0 0.0 13.75323 0.0 0.0 0.0 23.89" Properties=species:S:1:pos:R:3:move_mask:L:1:forces:R:3 energy=-605.6505399176734 stress="0.009222016220026243 0.00012617554568614093 -0.00013427730327306766 0.00012617554568614093 0.008110817631336304 -6.930080088218753e-05 -0.00013427730327306766 -6.930080088218753e-05 -9.5540951071082e-05" pbc="T T T"
Pd       0.00000000       0.00000000      10.00000000  F      -0.05403327      -0.04456432       0.14366781
Pd       2.75064538       0.00000000      10.00000000  F      -0.06524457      -0.00717917       0.03539555
Pd       5.50129076       0.00000000      10.00000000  F      -0.06765243       0.16275122      -0.09482186
Pd       8.25193614       0.00000000      10.00000000  F       0.01038332       0.18648944      -0.10430952
Pd      11.00258152       0.00000000      10.00000000  F       0.06974137       0.00872945       0.03931319
Pd       0.00000000       2.75064538      10.00000000  F      -0.00758269      -0.12270978       0.12426899
Pd       2.75064538       2.75064538      10.00000000  F      -0.05097970      -0.03700647       0.01988945
Pd       5.50129076       2.75064538      10.00000000  F      -0.00963111       0.04618745      -0.01909967
Pd       8.25193614       2.75064538      10.00000000  F       0.02923953      -0.00088627       0.03882355
Pd      11.00258152       2.75064538      10.00000000  F       0.06801316      -0.12278228       0.06469627
Pd       0.00000000       5.50129076      10.00000000  F      -0.02871705      -0.14369621       0.01176124
Pd       2.75064538       5.50129076      10.00000000  F      -0.08416769      -0.08662159      -0.01939113
Pd       5.50129076       5.50129076      10.00000000  F      -0.03545439       0.05326016      -0.02575490
Pd       8.25193614       5.50129076      10.00000000  F       0.05301575       0.03093450       0.00566141
Pd      11.00258152       5.50129076      10.00000000  F       0.07900559      -0.09829836      -0.02702405
Pd       0.00000000       8.25193614      10.00000000  F      -0.07424265      -0.08186235       0.00840080
Pd       2.75064538       8.25193614      10.00000000  F      -0.06899913       0.06577535      -0.08681165
Pd       5.50129076       8.25193614      10.00000000  F      -0.00567734       0.14689322      -0.08495571
Pd       8.25193614       8.25193614      10.00000000  F       0.01459752       0.05724260       0.02733904
Pd      11.00258152       8.25193614      10.00000000  F       0.10031114      -0.04288961      -0.05080529
Pd       0.00000000      11.00258152      10.00000000  F      -0.05564469      -0.04479166      -0.00141747
Pd       2.75064538      11.00258152      10.00000000  F      -0.02363860       0.04828422      -0.02243102
Pd       5.50129076      11.00258152      10.00000000  F      -0.00070686       0.08304188      -0.01084294
Pd       8.25193614      11.00258152      10.00000000  F       0.02734766      -0.04245679      -0.08972589
Pd      11.00258152      11.00258152      10.00000000  F       0.09750445      -0.08992156      -0.03488732
Pd       1.36370366       1.33118891      11.98926613  T      -0.00148681      -0.01212105      -0.00322446
Pd       4.13242589       1.39285598      11.97058757  T      -0.00031987       0.00407361       0.00909994
Pd       6.85337103       1.43217514      11.98878684  T       0.00342621       0.00196530       0.00058666
Pd       9.62641392       1.36998304      11.98243959  T      -0.00253666      -0.00068835      -0.01269568
Pd      12.35646124       1.30656344      12.01648611  T      -0.00079668       0.00192318       0.01158008
Pd       1.37677213       4.05578203      12.00020099  T      -0.01176546       0.00560861      -0.00123817
Pd       4.11910196       4.13806675      11.94743451  T      -0.00167440      -0.00596188      -0.00290075
Pd       6.89334408       4.17015925      11.94493657  T       0.00056966      -0.00348541       0.00863287
Pd       9.66361244       4.10272335      11.96711246  T      -0.01301721       0.00209147       0.00756327
Pd      12.39118003       4.06175763      11.98281456  T      -0.01125305       0.00349593       0.01258112